Program Version,EnergyPlus, Version 9.4.0-998c4b761e, YMD=2023.05.31 15:55
1,5,Environment Title[],Latitude[deg],Longitude[deg],Time Zone[],Elevation[m]
2,8,Day of Simulation[],Month[],Day of Month[],DST Indicator[1=yes 0=no],Hour[],StartMinute[],EndMinute[],DayType
3,5,Cumulative Day of Simulation[],Month[],Day of Month[],DST Indicator[1=yes 0=no],DayType  ! When Daily Report Variables Requested
4,2,Cumulative Days of Simulation[],Month[]  ! When Monthly Report Variables Requested
5,1,Cumulative Days of Simulation[] ! When Run Period Report Variables Requested
6,1,Calendar Year of Simulation[] ! When Annual Report Variables Requested
214,1,SHOEBOX,Zone Air Temperature [C] !Hourly
217,1,PURCHASED AIR,Zone Ideal Loads Supply Air Total Heating Energy [J] !Hourly
266,1,PURCHASED AIR,Zone Ideal Loads Supply Air Total Cooling Energy [J] !Hourly
317,1,PEOPLE_COMFORT,Zone Thermal Comfort Fanger Model PPD [%] !Hourly
End of Data Dictionary
1,CUSTOMRUN,  46.49,  11.31,   1.00, 254.00
2,1, 1, 1, 0, 1, 0.00,60.00,Monday
317,31.874087714837079
214,20.0
217,4367504.325148698
266,0.0
2,1, 1, 1, 0, 2, 0.00,60.00,Monday
317,33.09732354292626
214,20.0
217,4545666.598465288
266,0.0
2,1, 1, 1, 0, 3, 0.00,60.00,Monday
317,33.49257452595845
214,20.0
217,4603497.605428961
266,0.0
2,1, 1, 1, 0, 4, 0.00,60.00,Monday
317,33.71056335450504
214,20.0
217,4632938.76017034
266,0.0
2,1, 1, 1, 0, 5, 0.00,60.00,Monday
317,34.74196137985066
214,20.0
217,4772444.830595933
266,0.0
2,1, 1, 1, 0, 6, 0.00,60.00,Monday
317,35.303457058442429
214,20.0
217,4849995.166953156
266,0.0
2,1, 1, 1, 0, 7, 0.00,60.00,Monday
317,36.31651369985331
214,20.0
217,5301149.6418239469
266,0.0
2,1, 1, 1, 0, 8, 0.00,60.00,Monday
317,37.75972175866303
214,20.0
217,5585772.251243755
266,0.0
2,1, 1, 1, 0, 9, 0.00,60.00,Monday
317,38.885649296639638
214,20.0
217,6072184.183608748
266,0.0
2,1, 1, 1, 0,10, 0.00,60.00,Monday
317,38.36134020198903
214,20.0
217,6024587.606781852
266,0.0
2,1, 1, 1, 0,11, 0.00,60.00,Monday
317,30.90946782582495
214,20.0
217,4782373.541036787
266,0.0
2,1, 1, 1, 0,12, 0.00,60.00,Monday
317,18.809930134182286
214,20.0
217,2451189.369945155
266,0.0
2,1, 1, 1, 0,13, 0.00,60.00,Monday
317,14.298228687124614
214,20.0
217,961065.2803373876
266,0.0
2,1, 1, 1, 0,14, 0.00,60.00,Monday
317,13.738288712041987
214,20.016881821235939
217,76220.63446447707
266,0.0
2,1, 1, 1, 0,15, 0.00,60.00,Monday
317,15.011712560877646
214,20.163942938957328
217,0.0
266,0.0
2,1, 1, 1, 0,16, 0.00,60.00,Monday
317,20.361639483940367
214,20.035875186704513
217,917278.1225440292
266,0.0
2,1, 1, 1, 0,17, 0.00,60.00,Monday
317,26.485808254199328
214,20.00000000000001
217,3574383.94485036
266,0.0
2,1, 1, 1, 0,18, 0.00,60.00,Monday
317,26.67440854411522
214,20.0
217,3993561.5920368295
266,0.0
2,1, 1, 1, 0,19, 0.00,60.00,Monday
317,27.969082914602578
214,20.0
217,4261266.9805657169
266,0.0
2,1, 1, 1, 0,20, 0.00,60.00,Monday
317,28.82521803227387
214,20.0
217,4222772.1296891369
266,0.0
2,1, 1, 1, 0,21, 0.00,60.00,Monday
317,29.585697820520097
214,20.0
217,4339333.016463065
266,0.0
2,1, 1, 1, 0,22, 0.00,60.00,Monday
317,29.910685190064269
214,20.0
217,4153896.813324894
266,0.0
2,1, 1, 1, 0,23, 0.00,60.00,Monday
317,29.95914623532522
214,20.0
217,4103062.1743311437
266,0.0
2,1, 1, 1, 0,24, 0.00,60.00,Monday
317,30.887391072146845
214,20.0
217,4231611.488098482
266,0.0
2,2, 1, 2, 0, 1, 0.00,60.00,Tuesday
317,31.496571580577507
214,20.0
217,4319239.658685739
266,0.0
2,2, 1, 2, 0, 2, 0.00,60.00,Tuesday
317,32.22040264050752
214,20.0
217,4416363.862599445
266,0.0
2,2, 1, 2, 0, 3, 0.00,60.00,Tuesday
317,33.03731073219406
214,20.0
217,4543864.12409048
266,0.0
2,2, 1, 2, 0, 4, 0.00,60.00,Tuesday
317,33.64759251984097
214,20.0
217,4622099.257869805
266,0.0
2,2, 1, 2, 0, 5, 0.00,60.00,Tuesday
317,34.35787239461518
214,20.0
217,4719855.516582573
266,0.0
2,2, 1, 2, 0, 6, 0.00,60.00,Tuesday
317,34.79650809222252
214,20.0
217,4780992.97552289
266,0.0
2,2, 1, 2, 0, 7, 0.00,60.00,Tuesday
317,36.12732832503233
214,20.0
217,5271989.45162581
266,0.0
2,2, 1, 2, 0, 8, 0.00,60.00,Tuesday
317,37.1934675302077
214,20.0
217,5492047.875470103
266,0.0
2,2, 1, 2, 0, 9, 0.00,60.00,Tuesday
317,38.32226424999988
214,20.0
217,5970191.185951834
266,0.0
2,2, 1, 2, 0,10, 0.00,60.00,Tuesday
317,37.77953022081833
214,20.0
217,5918780.029666122
266,0.0
2,2, 1, 2, 0,11, 0.00,60.00,Tuesday
317,30.08691610635061
214,20.0
217,4634153.449727716
266,0.0
2,2, 1, 2, 0,12, 0.00,60.00,Tuesday
317,18.671066822957813
214,20.0
217,2439369.445055597
266,0.0
2,2, 1, 2, 0,13, 0.00,60.00,Tuesday
317,14.045866337522222
214,20.0
217,919157.6633467005
266,0.0
2,2, 1, 2, 0,14, 0.00,60.00,Tuesday
317,13.226583958918452
214,20.043182743608587
217,46421.5255248618
266,0.0
2,2, 1, 2, 0,15, 0.00,60.00,Tuesday
317,13.81638539214641
214,20.27387538639063
217,0.0
266,0.0
2,2, 1, 2, 0,16, 0.00,60.00,Tuesday
317,18.40277950111071
214,20.145671825470275
217,474000.8564250861
266,0.0
2,2, 1, 2, 0,17, 0.00,60.00,Tuesday
317,26.129561599973966
214,20.000000000925345
217,3294230.520248622
266,0.0
2,2, 1, 2, 0,18, 0.00,60.00,Tuesday
317,25.754432703695274
214,20.0
217,3750569.618496171
266,0.0
2,2, 1, 2, 0,19, 0.00,60.00,Tuesday
317,26.879241894731555
214,20.0
217,4021568.0732872916
266,0.0
2,2, 1, 2, 0,20, 0.00,60.00,Tuesday
317,27.757532086544445
214,20.0
217,4024726.478395865
266,0.0
2,2, 1, 2, 0,21, 0.00,60.00,Tuesday
317,28.045708559511409
214,20.0
217,4068527.9266613388
266,0.0
2,2, 1, 2, 0,22, 0.00,60.00,Tuesday
317,28.1417917204987
214,20.0
217,3889048.6003774979
266,0.0
2,2, 1, 2, 0,23, 0.00,60.00,Tuesday
317,28.17964937608745
214,20.0
217,3856019.2151541265
266,0.0
2,2, 1, 2, 0,24, 0.00,60.00,Tuesday
317,28.961786437572596
214,20.0
217,3960108.152161774
266,0.0
2,3, 1, 3, 0, 1, 0.00,60.00,Wednesday
317,27.790838594681657
214,20.0
217,3796401.006712485
266,0.0
2,3, 1, 3, 0, 2, 0.00,60.00,Wednesday
317,25.061031520762528
214,20.0
217,3388514.6192714206
266,0.0
2,3, 1, 3, 0, 3, 0.00,60.00,Wednesday
317,24.12560544560384
214,20.0
217,3241878.8873254556
266,0.0
2,3, 1, 3, 0, 4, 0.00,60.00,Wednesday
317,24.84278560149374
214,20.0
217,3351759.1597629359
266,0.0
2,3, 1, 3, 0, 5, 0.00,60.00,Wednesday
317,25.73340387413191
214,19.999999999999998
217,3486438.667962888
266,0.0
2,3, 1, 3, 0, 6, 0.00,60.00,Wednesday
317,26.50175428691726
214,20.0
217,3600819.9275632405
266,0.0
2,3, 1, 3, 0, 7, 0.00,60.00,Wednesday
317,27.898870310896599
214,20.0
217,3953832.323683583
266,0.0
2,3, 1, 3, 0, 8, 0.00,60.00,Wednesday
317,29.33908469622875
214,20.0
217,4214600.755805844
266,0.0
2,3, 1, 3, 0, 9, 0.00,60.00,Wednesday
317,30.492361027121587
214,20.0
217,4551680.064436246
266,0.0
2,3, 1, 3, 0,10, 0.00,60.00,Wednesday
317,30.50429635746003
214,20.0
217,4568820.919968155
266,0.0
2,3, 1, 3, 0,11, 0.00,60.00,Wednesday
317,24.00617578578954
214,20.0
217,3344749.3164429657
266,0.0
2,3, 1, 3, 0,12, 0.00,60.00,Wednesday
317,15.385225596629036
214,20.0
217,1184451.0269840428
266,0.0
2,3, 1, 3, 0,13, 0.00,60.00,Wednesday
317,12.671920884450359
214,20.134514406726259
217,27181.640789587287
266,0.0
2,3, 1, 3, 0,14, 0.00,60.00,Wednesday
317,9.88275403972875
214,20.874803394837558
217,0.0
266,0.0
2,3, 1, 3, 0,15, 0.00,60.00,Wednesday
317,7.582722509569457
214,21.681180709625509
217,0.0
266,0.0
2,3, 1, 3, 0,16, 0.00,60.00,Wednesday
317,7.93601000182066
214,21.999854597358874
217,0.0
266,0.0
2,3, 1, 3, 0,17, 0.00,60.00,Wednesday
317,17.599288532383978
214,21.09194525011669
217,0.0
266,0.0
2,3, 1, 3, 0,18, 0.00,60.00,Wednesday
317,28.025578975313285
214,20.074080885944679
217,2125737.48126324
266,0.0
2,3, 1, 3, 0,19, 0.00,60.00,Wednesday
317,24.726035665218665
214,20.00000000000056
217,3078709.9569718118
266,0.0
2,3, 1, 3, 0,20, 0.00,60.00,Wednesday
317,23.55751280969238
214,20.0
217,3056474.146359522
266,0.0
2,3, 1, 3, 0,21, 0.00,60.00,Wednesday
317,23.291381708370598
214,20.0
217,3123658.4574304528
266,0.0
2,3, 1, 3, 0,22, 0.00,60.00,Wednesday
317,23.048707095812366
214,20.0
217,3033416.048689325
266,0.0
2,3, 1, 3, 0,23, 0.00,60.00,Wednesday
317,22.500892895034857
214,20.0
217,2965058.167087162
266,0.0
2,3, 1, 3, 0,24, 0.00,60.00,Wednesday
317,23.140585931399956
214,20.0
217,3069533.594158077
266,0.0
2,4, 1, 4, 0, 1, 0.00,60.00,Thursday
317,23.63026817431752
214,19.999999999999998
217,3148275.3326587255
266,0.0
2,4, 1, 4, 0, 2, 0.00,60.00,Thursday
317,24.381130087884558
214,20.0
217,3266553.84023745
266,0.0
2,4, 1, 4, 0, 3, 0.00,60.00,Thursday
317,25.762280043267965
214,20.0
217,3479226.3026208879
266,0.0
2,4, 1, 4, 0, 4, 0.00,60.00,Thursday
317,27.08344505154192
214,20.0
217,3678226.6476472124
266,0.0
2,4, 1, 4, 0, 5, 0.00,60.00,Thursday
317,28.374516759176925
214,20.0
217,3867865.952815716
266,0.0
2,4, 1, 4, 0, 6, 0.00,60.00,Thursday
317,29.586663485744557
214,20.0
217,4033144.372485759
266,0.0
2,4, 1, 4, 0, 7, 0.00,60.00,Thursday
317,31.338064482411047
214,20.0
217,4526667.151511639
266,0.0
2,4, 1, 4, 0, 8, 0.00,60.00,Thursday
317,33.08245264646089
214,20.0
217,4850070.502088806
266,0.0
2,4, 1, 4, 0, 9, 0.00,60.00,Thursday
317,34.39782521525105
214,20.0
217,5306373.821927414
266,0.0
2,4, 1, 4, 0,10, 0.00,60.00,Thursday
317,32.43832127296394
214,20.0
217,5017333.249325479
266,0.0
2,4, 1, 4, 0,11, 0.00,60.00,Thursday
317,18.896621112095969
214,20.0
217,2381098.6487405027
266,0.0
2,4, 1, 4, 0,12, 0.00,60.00,Thursday
317,14.06433246075119
214,20.0
217,729127.7201914134
266,0.0
2,4, 1, 4, 0,13, 0.00,60.00,Thursday
317,13.356302924298973
214,20.084170317540413
217,17130.80901240692
266,0.0
2,4, 1, 4, 0,14, 0.00,60.00,Thursday
317,11.131903559151207
214,20.643893420709067
217,0.0
266,0.0
2,4, 1, 4, 0,15, 0.00,60.00,Thursday
317,9.485504708056391
214,21.24440952865919
217,0.0
266,0.0
2,4, 1, 4, 0,16, 0.00,60.00,Thursday
317,13.020130046867493
214,21.081547208085053
217,0.0
266,0.0
2,4, 1, 4, 0,17, 0.00,60.00,Thursday
317,26.695150516552798
214,20.10740377529494
217,1998965.3840240264
266,0.0
2,4, 1, 4, 0,18, 0.00,60.00,Thursday
317,25.42496412099238
214,20.00000000000031
217,3477761.783006358
266,0.0
2,4, 1, 4, 0,19, 0.00,60.00,Thursday
317,25.404716330629893
214,20.0
217,3684771.8280934996
266,0.0
2,4, 1, 4, 0,20, 0.00,60.00,Thursday
317,25.8407147849276
214,20.0
217,3657507.220310348
266,0.0
2,4, 1, 4, 0,21, 0.00,60.00,Thursday
317,25.84258413719536
214,20.0
217,3675370.9373486049
266,0.0
2,4, 1, 4, 0,22, 0.00,60.00,Thursday
317,26.35780796922786
214,20.0
217,3605824.009358501
266,0.0
2,4, 1, 4, 0,23, 0.00,60.00,Thursday
317,27.01431466789606
214,20.0
217,3680188.8494747916
266,0.0
2,4, 1, 4, 0,24, 0.00,60.00,Thursday
317,26.858814809096129
214,20.0
217,3653695.695661464
266,0.0
2,5, 1, 5, 0, 1, 0.00,60.00,Friday
317,27.56974551863061
214,20.0
217,3756983.0553566429
266,0.0
2,5, 1, 5, 0, 2, 0.00,60.00,Friday
317,28.165175030673596
214,20.0
217,3846807.961672917
266,0.0
2,5, 1, 5, 0, 3, 0.00,60.00,Friday
317,27.812454813491063
214,20.0
217,3796651.811325727
266,0.0
2,5, 1, 5, 0, 4, 0.00,60.00,Friday
317,27.590726112848075
214,20.0
217,3765230.861571261
266,0.0
2,5, 1, 5, 0, 5, 0.00,60.00,Friday
317,27.617124931392707
214,20.000000000000005
217,3768976.1525138455
266,0.0
2,5, 1, 5, 0, 6, 0.00,60.00,Friday
317,28.28852710166318
214,20.0
217,3866288.542320429
266,0.0
2,5, 1, 5, 0, 7, 0.00,60.00,Friday
317,29.783241774074197
214,20.0
217,4275620.384354074
266,0.0
2,5, 1, 5, 0, 8, 0.00,60.00,Friday
317,30.922436510899958
214,20.0
217,4491457.406039183
266,0.0
2,5, 1, 5, 0, 9, 0.00,60.00,Friday
317,31.538175913345858
214,20.0
217,4773091.09428099
266,0.0
2,5, 1, 5, 0,10, 0.00,60.00,Friday
317,29.49002139496757
214,20.0
217,4426814.3148468979
266,0.0
2,5, 1, 5, 0,11, 0.00,60.00,Friday
317,25.395379847554563
214,20.0
217,3649282.536009849
266,0.0
2,5, 1, 5, 0,12, 0.00,60.00,Friday
317,23.321914617413797
214,20.0
217,3256317.4620044126
266,0.0
2,5, 1, 5, 0,13, 0.00,60.00,Friday
317,16.596778196629896
214,20.0
217,1728242.7012199858
266,0.0
2,5, 1, 5, 0,14, 0.00,60.00,Friday
317,13.004020789837489
214,20.03388306861739
217,170703.85440321224
266,0.0
2,5, 1, 5, 0,15, 0.00,60.00,Friday
317,13.006971978761476
214,20.347256688599136
217,0.0
266,0.0
2,5, 1, 5, 0,16, 0.00,60.00,Friday
317,15.79746486741317
214,20.416687194730508
217,0.0
266,0.0
2,5, 1, 5, 0,17, 0.00,60.00,Friday
317,26.649574591904015
214,20.000036214783749
217,2893314.958522838
266,0.0
2,5, 1, 5, 0,18, 0.00,60.00,Friday
317,25.583263146452095
214,20.0
217,3576205.5651681607
266,0.0
2,5, 1, 5, 0,19, 0.00,60.00,Friday
317,26.381643926536943
214,20.0
217,3872745.456664846
266,0.0
2,5, 1, 5, 0,20, 0.00,60.00,Friday
317,26.78031926549406
214,20.0
217,3824217.747553775
266,0.0
2,5, 1, 5, 0,21, 0.00,60.00,Friday
317,27.34542581916557
214,20.0
217,3938263.157519878
266,0.0
2,5, 1, 5, 0,22, 0.00,60.00,Friday
317,27.95152045400052
214,20.0
217,3855687.0277287859
266,0.0
2,5, 1, 5, 0,23, 0.00,60.00,Friday
317,27.623907877428434
214,20.0
217,3770168.7424789636
266,0.0
2,5, 1, 5, 0,24, 0.00,60.00,Friday
317,28.473783933021634
214,20.0
217,3886385.87811682
266,0.0
2,6, 1, 6, 0, 1, 0.00,60.00,Saturday
317,29.86553814870295
214,20.0
217,4078449.359566927
266,0.0
2,6, 1, 6, 0, 2, 0.00,60.00,Saturday
317,31.03270415095622
214,20.0
217,4247085.013376335
266,0.0
2,6, 1, 6, 0, 3, 0.00,60.00,Saturday
317,32.05107589906593
214,20.0
217,4387537.731672803
266,0.0
2,6, 1, 6, 0, 4, 0.00,60.00,Saturday
317,33.024575455124658
214,20.0
217,4533049.5195642099
266,0.0
2,6, 1, 6, 0, 5, 0.00,60.00,Saturday
317,33.78349837726524
214,20.0
217,4636109.077674671
266,0.0
2,6, 1, 6, 0, 6, 0.00,60.00,Saturday
317,34.34706962098837
214,20.0
217,4714711.163828617
266,0.0
2,6, 1, 6, 0, 7, 0.00,60.00,Saturday
317,36.46163712179563
214,20.0
217,5331322.189033637
266,0.0
2,6, 1, 6, 0, 8, 0.00,60.00,Saturday
317,38.42035585219414
214,20.0
217,5690895.154218538
266,0.0
2,6, 1, 6, 0, 9, 0.00,60.00,Saturday
317,38.28895754576976
214,20.0
217,5992369.488079458
266,0.0
2,6, 1, 6, 0,10, 0.00,60.00,Saturday
317,35.12255275036677
214,20.0
217,5500449.66372362
266,0.0
2,6, 1, 6, 0,11, 0.00,60.00,Saturday
317,27.067811460989778
214,20.0
217,4111198.197112794
266,0.0
2,6, 1, 6, 0,12, 0.00,60.00,Saturday
317,16.86084979010111
214,20.0
217,1922952.6075384219
266,0.0
2,6, 1, 6, 0,13, 0.00,60.00,Saturday
317,13.511284354567863
214,20.000197482749227
217,458817.68559022058
266,0.0
2,6, 1, 6, 0,14, 0.00,60.00,Saturday
317,12.519359799407703
214,20.217369597188847
217,0.0
266,0.0
2,6, 1, 6, 0,15, 0.00,60.00,Saturday
317,10.86572001238838
214,20.791775369949709
217,0.0
266,0.0
2,6, 1, 6, 0,16, 0.00,60.00,Saturday
317,10.403123537194397
214,21.17213131183611
217,0.0
266,0.0
2,6, 1, 6, 0,17, 0.00,60.00,Saturday
317,19.17838818387514
214,20.471184739836898
217,387770.9148776558
266,0.0
2,6, 1, 6, 0,18, 0.00,60.00,Saturday
317,23.102863709570756
214,20.00000020240469
217,1839281.6356307497
266,0.0
2,6, 1, 6, 0,19, 0.00,60.00,Saturday
317,21.4928752360903
214,20.0
217,2148834.5274550116
266,0.0
2,6, 1, 6, 0,20, 0.00,60.00,Saturday
317,21.124761638506369
214,20.0
217,2384531.3669003208
266,0.0
2,6, 1, 6, 0,21, 0.00,60.00,Saturday
317,20.792024504755636
214,20.0
217,2522885.296501708
266,0.0
2,6, 1, 6, 0,22, 0.00,60.00,Saturday
317,20.42213324324622
214,20.0
217,2527459.0001413307
266,0.0
2,6, 1, 6, 0,23, 0.00,60.00,Saturday
317,19.970157748399417
214,20.0
217,2524620.6946829247
266,0.0
2,6, 1, 6, 0,24, 0.00,60.00,Saturday
317,21.081814656295874
214,20.0
217,2728588.9258757785
266,0.0
2,7, 1, 7, 0, 1, 0.00,60.00,Sunday
317,22.245054520898085
214,20.0
217,2923095.8478192656
266,0.0
2,7, 1, 7, 0, 2, 0.00,60.00,Sunday
317,23.64763485227235
214,19.999999999999998
217,3148060.5120592296
266,0.0
2,7, 1, 7, 0, 3, 0.00,60.00,Sunday
317,25.27435882202012
214,20.0
217,3401697.6588850535
266,0.0
2,7, 1, 7, 0, 4, 0.00,60.00,Sunday
317,26.170727646648758
214,20.0
217,3539447.43854968
266,0.0
2,7, 1, 7, 0, 5, 0.00,60.00,Sunday
317,26.846007820761998
214,20.0
217,3641442.7527370105
266,0.0
2,7, 1, 7, 0, 6, 0.00,60.00,Sunday
317,27.303856718723848
214,20.0
217,3711151.6558868514
266,0.0
2,7, 1, 7, 0, 7, 0.00,60.00,Sunday
317,28.57678093669271
214,20.0
217,4080213.006165627
266,0.0
2,7, 1, 7, 0, 8, 0.00,60.00,Sunday
317,30.06786291571477
214,20.0
217,4351313.726244939
266,0.0
2,7, 1, 7, 0, 9, 0.00,60.00,Sunday
317,30.86154879275313
214,20.0
217,4646377.728514994
266,0.0
2,7, 1, 7, 0,10, 0.00,60.00,Sunday
317,30.19365458124396
214,20.0
217,4533932.674857224
266,0.0
2,7, 1, 7, 0,11, 0.00,60.00,Sunday
317,23.42949678986818
214,20.0
217,3257339.7907775209
266,0.0
2,7, 1, 7, 0,12, 0.00,60.00,Sunday
317,15.136766661522393
214,20.0
217,1176015.684414896
266,0.0
2,7, 1, 7, 0,13, 0.00,60.00,Sunday
317,12.657488297235082
214,20.093899956318347
217,43203.980013193715
266,0.0
2,7, 1, 7, 0,14, 0.00,60.00,Sunday
317,9.584458338828263
214,20.813734421408744
217,0.0
266,0.0
2,7, 1, 7, 0,15, 0.00,60.00,Sunday
317,7.183000787926654
214,21.6934117033004
217,0.0
266,0.0
2,7, 1, 7, 0,16, 0.00,60.00,Sunday
317,9.844161364441496
214,21.60056219464205
217,0.0
266,0.0
2,7, 1, 7, 0,17, 0.00,60.00,Sunday
317,22.574654410863276
214,20.451912088358609
217,697692.2329881236
266,0.0
2,7, 1, 7, 0,18, 0.00,60.00,Sunday
317,26.030885904873498
214,20.00000082460839
217,3116003.8967456037
266,0.0
2,7, 1, 7, 0,19, 0.00,60.00,Sunday
317,24.110947337863438
214,20.0
217,3278750.907301641
266,0.0
2,7, 1, 7, 0,20, 0.00,60.00,Sunday
317,24.029864033882644
214,20.0
217,3251971.6895694278
266,0.0
2,7, 1, 7, 0,21, 0.00,60.00,Sunday
317,24.307123518976966
214,20.0
217,3363617.4353859147
266,0.0
2,7, 1, 7, 0,22, 0.00,60.00,Sunday
317,24.570652613504309
214,20.0
217,3306934.330608998
266,0.0
2,7, 1, 7, 0,23, 0.00,60.00,Sunday
317,24.22490015019498
214,20.0
217,3248512.7691394926
266,0.0
2,7, 1, 7, 0,24, 0.00,60.00,Sunday
317,25.042311361459544
214,20.0
217,3372286.553050439
266,0.0
2,8, 1, 8, 0, 1, 0.00,60.00,Monday
317,26.337641660478267
214,20.0
217,3568666.327281825
266,0.0
2,8, 1, 8, 0, 2, 0.00,60.00,Monday
317,27.323757196523944
214,19.999999999999998
217,3716724.1066773778
266,0.0
2,8, 1, 8, 0, 3, 0.00,60.00,Monday
317,28.068678066562119
214,20.0
217,3827004.4958590345
266,0.0
2,8, 1, 8, 0, 4, 0.00,60.00,Monday
317,29.537032334323994
214,20.0
217,4030224.491251496
266,0.0
2,8, 1, 8, 0, 5, 0.00,60.00,Monday
317,30.5752173131892
214,20.0
217,4179996.062645704
266,0.0
2,8, 1, 8, 0, 6, 0.00,60.00,Monday
317,30.91173642660969
214,20.0
217,4229870.670995695
266,0.0
2,8, 1, 8, 0, 7, 0.00,60.00,Monday
317,32.556084524759
214,20.0
217,4721174.590334227
266,0.0
2,8, 1, 8, 0, 8, 0.00,60.00,Monday
317,34.775640706444
214,20.0
217,5123241.642148425
266,0.0
2,8, 1, 8, 0, 9, 0.00,60.00,Monday
317,35.724161871654057
214,20.0
217,5536126.228341469
266,0.0
2,8, 1, 8, 0,10, 0.00,60.00,Monday
317,34.66549822509568
214,20.0
217,5375428.767589908
266,0.0
2,8, 1, 8, 0,11, 0.00,60.00,Monday
317,26.818845610707429
214,20.0
217,4041592.953924499
266,0.0
2,8, 1, 8, 0,12, 0.00,60.00,Monday
317,16.88295490881885
214,20.0
217,1911988.599043148
266,0.0
2,8, 1, 8, 0,13, 0.00,60.00,Monday
317,13.31117082705831
214,20.00234132791922
217,400189.6325629931
266,0.0
2,8, 1, 8, 0,14, 0.00,60.00,Monday
317,12.193632034699624
214,20.272172114840413
217,0.0
266,0.0
2,8, 1, 8, 0,15, 0.00,60.00,Monday
317,10.986453786098127
214,20.805795826554666
217,0.0
266,0.0
2,8, 1, 8, 0,16, 0.00,60.00,Monday
317,13.150766927605899
214,20.86561043744174
217,0.0
266,0.0
2,8, 1, 8, 0,17, 0.00,60.00,Monday
317,26.58344259583771
214,20.09147874131037
217,2164058.4637259806
266,0.0
2,8, 1, 8, 0,18, 0.00,60.00,Monday
317,25.786808308134267
214,20.00000000000072
217,3606913.798743462
266,0.0
2,8, 1, 8, 0,19, 0.00,60.00,Monday
317,26.137635558531245
214,20.0
217,3855891.6075392228
266,0.0
2,8, 1, 8, 0,20, 0.00,60.00,Monday
317,26.87989425256485
214,20.0
217,3864049.242862067
266,0.0
2,8, 1, 8, 0,21, 0.00,60.00,Monday
317,27.41383139083845
214,20.0
217,3967651.7376119049
266,0.0
2,8, 1, 8, 0,22, 0.00,60.00,Monday
317,27.61943336809946
214,20.0
217,3807431.880736572
266,0.0
2,8, 1, 8, 0,23, 0.00,60.00,Monday
317,27.480070238411704
214,20.0
217,3751257.522863861
266,0.0
2,8, 1, 8, 0,24, 0.00,60.00,Monday
317,28.61995520246145
214,20.0
217,3909841.00678661
266,0.0
2,9, 1, 9, 0, 1, 0.00,60.00,Tuesday
317,30.041777199924664
214,20.0
217,4106014.9012292975
266,0.0
2,9, 1, 9, 0, 2, 0.00,60.00,Tuesday
317,31.211666313859508
214,20.0
217,4274616.229907393
266,0.0
2,9, 1, 9, 0, 3, 0.00,60.00,Tuesday
317,31.789551071615518
214,20.0
217,4358454.355685304
266,0.0
2,9, 1, 9, 0, 4, 0.00,60.00,Tuesday
317,32.415513362429937
214,20.0
217,4445007.767636108
266,0.0
2,9, 1, 9, 0, 5, 0.00,60.00,Tuesday
317,33.251896151481329
214,20.0
217,4569539.736093286
266,0.0
2,9, 1, 9, 0, 6, 0.00,60.00,Tuesday
317,34.05624523280454
214,20.0
217,4676446.290800271
266,0.0
2,9, 1, 9, 0, 7, 0.00,60.00,Tuesday
317,35.66003321444135
214,20.0
217,5207496.512902649
266,0.0
2,9, 1, 9, 0, 8, 0.00,60.00,Tuesday
317,37.15614153554578
214,20.0
217,5496511.539960395
266,0.0
2,9, 1, 9, 0, 9, 0.00,60.00,Tuesday
317,37.94649198131713
214,20.0
217,5933137.029632468
266,0.0
2,9, 1, 9, 0,10, 0.00,60.00,Tuesday
317,35.179079162495849
214,20.0
217,5514540.289308424
266,0.0
2,9, 1, 9, 0,11, 0.00,60.00,Tuesday
317,28.38879627380275
214,20.0
217,4365878.411710166
266,0.0
2,9, 1, 9, 0,12, 0.00,60.00,Tuesday
317,24.758485272288018
214,19.999999999999998
217,3684613.759179734
266,0.0
2,9, 1, 9, 0,13, 0.00,60.00,Tuesday
317,24.290706395666935
214,20.0
217,3553067.807384544
266,0.0
2,9, 1, 9, 0,14, 0.00,60.00,Tuesday
317,23.042942066572676
214,20.0
217,3300762.428152239
266,0.0
2,9, 1, 9, 0,15, 0.00,60.00,Tuesday
317,19.2749437269801
214,20.0
217,2495118.706394958
266,0.0
2,9, 1, 9, 0,16, 0.00,60.00,Tuesday
317,20.823367578305395
214,20.0
217,2750801.756198724
266,0.0
2,9, 1, 9, 0,17, 0.00,60.00,Tuesday
317,27.744013602869076
214,20.0
217,4179007.834851466
266,0.0
2,9, 1, 9, 0,18, 0.00,60.00,Tuesday
317,29.989630961028327
214,20.0
217,4610108.535647784
266,0.0
2,9, 1, 9, 0,19, 0.00,60.00,Tuesday
317,31.204305618073705
214,20.0
217,4817665.505799106
266,0.0
2,9, 1, 9, 0,20, 0.00,60.00,Tuesday
317,31.709058520711939
214,20.0
217,4683701.694188416
266,0.0
2,9, 1, 9, 0,21, 0.00,60.00,Tuesday
317,32.0947804636369
214,20.0
217,4710507.071753495
266,0.0
2,9, 1, 9, 0,22, 0.00,60.00,Tuesday
317,32.00705673543505
214,20.0
217,4452620.202667184
266,0.0
2,9, 1, 9, 0,23, 0.00,60.00,Tuesday
317,31.99084929287233
214,20.0
217,4389145.015406435
266,0.0
2,9, 1, 9, 0,24, 0.00,60.00,Tuesday
317,32.67734604165073
214,20.0
217,4485759.820558883
266,0.0
2,10, 1,10, 0, 1, 0.00,60.00,Wednesday
317,33.138307336380638
214,20.0
217,4557483.673335386
266,0.0
2,10, 1,10, 0, 2, 0.00,60.00,Wednesday
317,33.88598991257339
214,20.0
217,4653463.970672716
266,0.0
2,10, 1,10, 0, 3, 0.00,60.00,Wednesday
317,34.279811762731217
214,20.0
217,4708815.006421098
266,0.0
2,10, 1,10, 0, 4, 0.00,60.00,Wednesday
317,34.444056540828487
214,20.0
217,4732210.512827178
266,0.0
2,10, 1,10, 0, 5, 0.00,60.00,Wednesday
317,34.883313845270929
214,20.0
217,4792387.245042581
266,0.0
2,10, 1,10, 0, 6, 0.00,60.00,Wednesday
317,35.40666523404311
214,20.0
217,4863674.368710277
266,0.0
2,10, 1,10, 0, 7, 0.00,60.00,Wednesday
317,36.52523388087486
214,20.0
217,5320140.720942599
266,0.0
2,10, 1,10, 0, 8, 0.00,60.00,Wednesday
317,37.655108505456777
214,20.0
217,5554106.364507429
266,0.0
2,10, 1,10, 0, 9, 0.00,60.00,Wednesday
317,38.64232335875453
214,20.0
217,6006535.360758073
266,0.0
2,10, 1,10, 0,10, 0.00,60.00,Wednesday
317,37.40449681192934
214,20.0
217,5859082.398985977
266,0.0
2,10, 1,10, 0,11, 0.00,60.00,Wednesday
317,27.482194102210725
214,20.0
217,4201063.790858204
266,0.0
2,10, 1,10, 0,12, 0.00,60.00,Wednesday
317,16.977340417566429
214,20.0
217,1987966.0715338549
266,0.0
2,10, 1,10, 0,13, 0.00,60.00,Wednesday
317,13.368925293701026
214,20.00017503457772
217,517799.5108719679
266,0.0
2,10, 1,10, 0,14, 0.00,60.00,Wednesday
317,11.972648392558787
214,20.230839447555057
217,0.0
266,0.0
2,10, 1,10, 0,15, 0.00,60.00,Wednesday
317,10.414353575263256
214,20.822271373961006
217,0.0
266,0.0
2,10, 1,10, 0,16, 0.00,60.00,Wednesday
317,13.07755151854248
214,20.8383452238448
217,0.0
266,0.0
2,10, 1,10, 0,17, 0.00,60.00,Wednesday
317,26.03927701095345
214,20.077959091120165
217,2148594.966718742
266,0.0
2,10, 1,10, 0,18, 0.00,60.00,Wednesday
317,25.535357963751279
214,20.00000000000058
217,3560935.7940527109
266,0.0
2,10, 1,10, 0,19, 0.00,60.00,Wednesday
317,25.73796248674721
214,20.0
217,3760070.9889565056
266,0.0
2,10, 1,10, 0,20, 0.00,60.00,Wednesday
317,26.359484198667606
214,20.0
217,3758511.26463892
266,0.0
2,10, 1,10, 0,21, 0.00,60.00,Wednesday
317,26.71842187485989
214,20.000000000000005
217,3833431.415234153
266,0.0
2,10, 1,10, 0,22, 0.00,60.00,Wednesday
317,26.77820488696065
214,20.0
217,3676331.45396902
266,0.0
2,10, 1,10, 0,23, 0.00,60.00,Wednesday
317,26.666725412991395
214,20.0
217,3630677.0097834968
266,0.0
2,10, 1,10, 0,24, 0.00,60.00,Wednesday
317,27.855235290670995
214,20.0
217,3800476.6446884225
266,0.0
2,11, 1,11, 0, 1, 0.00,60.00,Thursday
317,29.074219024025884
214,20.0
217,3971290.029899772
266,0.0
2,11, 1,11, 0, 2, 0.00,60.00,Thursday
317,30.082888852055239
214,20.0
217,4112334.5711841878
266,0.0
2,11, 1,11, 0, 3, 0.00,60.00,Thursday
317,31.046324636473956
214,20.0
217,4251259.068611156
266,0.0
2,11, 1,11, 0, 4, 0.00,60.00,Thursday
317,31.96568376238302
214,20.0
217,4376369.106779022
266,0.0
2,11, 1,11, 0, 5, 0.00,60.00,Thursday
317,32.531082958913078
214,20.0
217,4457835.50662454
266,0.0
2,11, 1,11, 0, 6, 0.00,60.00,Thursday
317,32.983661036657277
214,20.0
217,4533152.996965781
266,0.0
2,11, 1,11, 0, 7, 0.00,60.00,Thursday
317,34.7412670634179
214,20.0
217,5065922.032554706
266,0.0
2,11, 1,11, 0, 8, 0.00,60.00,Thursday
317,36.339618911146128
214,20.0
217,5365966.162740953
266,0.0
2,11, 1,11, 0, 9, 0.00,60.00,Thursday
317,37.48226609804704
214,20.0
217,5836765.113849058
266,0.0
2,11, 1,11, 0,10, 0.00,60.00,Thursday
317,36.31411858808613
214,20.0
217,5681535.383073387
266,0.0
2,11, 1,11, 0,11, 0.00,60.00,Thursday
317,26.287336781357799
214,20.0
217,3972972.4760648875
266,0.0
2,11, 1,11, 0,12, 0.00,60.00,Thursday
317,16.786651448258188
214,20.0
217,1929501.9613727774
266,0.0
2,11, 1,11, 0,13, 0.00,60.00,Thursday
317,13.299751547948665
214,20.000982351260406
217,481222.75901419037
266,0.0
2,11, 1,11, 0,14, 0.00,60.00,Thursday
317,12.06058823165697
214,20.23701564991817
217,0.0
266,0.0
2,11, 1,11, 0,15, 0.00,60.00,Thursday
317,10.855970783664349
214,20.77261329971761
217,0.0
266,0.0
2,11, 1,11, 0,16, 0.00,60.00,Thursday
317,13.743722896647336
214,20.745923790474433
217,0.0
266,0.0
2,11, 1,11, 0,17, 0.00,60.00,Thursday
317,25.77801482490176
214,20.037128764175887
217,2509156.00818664
266,0.0
2,11, 1,11, 0,18, 0.00,60.00,Thursday
317,25.44880797336882
214,20.00000000000001
217,3595984.6547643595
266,0.0
2,11, 1,11, 0,19, 0.00,60.00,Thursday
317,26.283639953483698
214,20.0
217,3905199.346728826
266,0.0
2,11, 1,11, 0,20, 0.00,60.00,Thursday
317,27.06546282227498
214,20.0
217,3904777.5739029648
266,0.0
2,11, 1,11, 0,21, 0.00,60.00,Thursday
317,27.510910950543644
214,20.0
217,3985263.651603503
266,0.0
2,11, 1,11, 0,22, 0.00,60.00,Thursday
317,27.70237557547402
214,20.0
217,3821523.31639553
266,0.0
2,11, 1,11, 0,23, 0.00,60.00,Thursday
317,27.782159992345226
214,20.0
217,3796837.140363371
266,0.0
2,11, 1,11, 0,24, 0.00,60.00,Thursday
317,28.59959573914453
214,20.0
217,3910686.451931704
266,0.0
2,12, 1,12, 0, 1, 0.00,60.00,Friday
317,29.814033206491229
214,20.0
217,4074372.6946429356
266,0.0
2,12, 1,12, 0, 2, 0.00,60.00,Friday
317,30.79578776218717
214,20.0
217,4216999.137504618
266,0.0
2,12, 1,12, 0, 3, 0.00,60.00,Friday
317,32.02928253199448
214,20.000000000000005
217,4389397.888810302
266,0.0
2,12, 1,12, 0, 4, 0.00,60.00,Friday
317,32.81466453041557
214,20.0
217,4507961.78938309
266,0.0
2,12, 1,12, 0, 5, 0.00,60.00,Friday
317,33.8578040033824
214,20.000000000000005
217,4650452.510774663
266,0.0
2,12, 1,12, 0, 6, 0.00,60.00,Friday
317,34.75857802331708
214,20.0
217,4772579.174668435
266,0.0
2,12, 1,12, 0, 7, 0.00,60.00,Friday
317,35.61011227503861
214,20.0
217,5195740.764384659
266,0.0
2,12, 1,12, 0, 8, 0.00,60.00,Friday
317,36.77309571514731
214,20.0
217,5433636.605117091
266,0.0
2,12, 1,12, 0, 9, 0.00,60.00,Friday
317,38.18335944936669
214,20.0
217,5961313.516366599
266,0.0
2,12, 1,12, 0,10, 0.00,60.00,Friday
317,37.23359574457614
214,20.0
217,5865820.5609195609
266,0.0
2,12, 1,12, 0,11, 0.00,60.00,Friday
317,26.229145705612266
214,19.999999999999998
217,4006166.601858274
266,0.0
2,12, 1,12, 0,12, 0.00,60.00,Friday
317,17.203273047957948
214,20.0
217,2078652.756807163
266,0.0
2,12, 1,12, 0,13, 0.00,60.00,Friday
317,13.677601082954438
214,20.0
217,689732.5536045333
266,0.0
2,12, 1,12, 0,14, 0.00,60.00,Friday
317,12.486258554124355
214,20.1565397553189
217,0.0
266,0.0
2,12, 1,12, 0,15, 0.00,60.00,Friday
317,11.323839799407422
214,20.674686763456465
217,0.0
266,0.0
2,12, 1,12, 0,16, 0.00,60.00,Friday
317,13.094605496909088
214,20.79453675624523
217,0.0
266,0.0
2,12, 1,12, 0,17, 0.00,60.00,Friday
317,25.607848138874745
214,20.080357248874646
217,2322245.427955739
266,0.0
2,12, 1,12, 0,18, 0.00,60.00,Friday
317,25.802487216901097
214,20.000000000001397
217,3655088.336281108
266,0.0
2,12, 1,12, 0,19, 0.00,60.00,Friday
317,26.327468132519298
214,20.0
217,3915854.902427973
266,0.0
2,12, 1,12, 0,20, 0.00,60.00,Friday
317,26.8639744185634
214,20.0
217,3866255.1992041596
266,0.0
2,12, 1,12, 0,21, 0.00,60.00,Friday
317,27.196838185891978
214,20.0
217,3928101.0156004868
266,0.0
2,12, 1,12, 0,22, 0.00,60.00,Friday
317,27.50607031981029
214,20.0
217,3792826.1296282794
266,0.0
2,12, 1,12, 0,23, 0.00,60.00,Friday
317,27.36119008179341
214,20.0
217,3736436.616787894
266,0.0
2,12, 1,12, 0,24, 0.00,60.00,Friday
317,28.142324454435899
214,20.0
217,3845182.3989420079
266,0.0
2,13, 1,13, 0, 1, 0.00,60.00,Saturday
317,29.386713360240333
214,20.0
217,4017059.769816748
266,0.0
2,13, 1,13, 0, 2, 0.00,60.00,Saturday
317,30.806524167601709
214,20.0
217,4218001.653679844
266,0.0